                         Program Version 4.2.1 -  RELEASE  -
|  1> ! SP B97-3c
|  2>
|  3> %base "example2"
|  4> %pal
|  5>    nprocs 1
|  6> end
|  7>
|  8> %scf
|  9>    MaxIter 2000
| 10> end
| 11>
| 12> * xyzfile 0 1 /home/atarzia/software/stk_optimizers/examples/orca_output_directory/orca_e2_dir/input_structure.xyz
| 13>
| 14>                          ****END OF INPUT****

CARTESIAN COORDINATES (ANGSTROEM)
---------------------------------
  N     -2.606242   -0.901236   -0.286531
  C     -1.714773   -0.035728    0.482743
  C     -0.278542   -0.105745   -0.041977
  N      0.573297    0.772673    0.754993
  H     -2.578099   -0.608691   -1.290497
  H     -2.253371   -1.884479   -0.231418
  H     -1.737235   -0.347523    1.549712
  H     -2.083154    1.011503    0.421540
  H     -0.261602    0.221912   -1.104310
  H      0.088213   -1.152415    0.036570
  O      2.222186   -0.488480   -1.269798
  C      2.689204    0.326160   -0.431657
  C      1.851928    0.970300    0.601008
  H      3.743625    0.565197   -0.467007
  H      2.344566    1.656553    1.276630

 Total Charge           Charge          ....    0
 Multiplicity           Mult            ....    1
 Number of Electrons    NEL             ....   54
 Basis Dimension        Dim             ....  162

ORBITAL ENERGIES
----------------

  NO   OCC          E(Eh)            E(eV)
   0   2.0000     -18.763095      -510.5698
   1   2.0000     -14.017832      -381.4446
   2   2.0000     -13.976168      -380.3109
   3   2.0000      -9.996845      -272.0280
   4   2.0000      -9.957480      -270.9568
   5   2.0000      -9.929673      -270.2001
   6   2.0000      -9.915216      -269.8067
   7   2.0000      -0.963274       -26.2120
   8   2.0000      -0.855247       -23.2724
   9   2.0000      -0.806879       -21.9563
  10   2.0000      -0.691342       -18.8124
  11   2.0000      -0.624991       -17.0069
  12   2.0000      -0.559224       -15.2173
  13   2.0000      -0.504867       -13.7381
  14   2.0000      -0.464163       -12.6305
  15   2.0000      -0.457916       -12.4605
  16   2.0000      -0.432931       -11.7807
  17   2.0000      -0.404902       -11.0179
  18   2.0000      -0.396284       -10.7834
  19   2.0000      -0.367856       -10.0099
  20   2.0000      -0.364828        -9.9275
  21   2.0000      -0.346212        -9.4209
  22   2.0000      -0.315098        -8.5742
  23   2.0000      -0.284259        -7.7351
  24   2.0000      -0.253706        -6.9037
  25   2.0000      -0.212800        -5.7906
  26   2.0000      -0.196777        -5.3546
  27   0.0000      -0.138436        -3.7670
  28   0.0000      -0.010862        -0.2956
  29   0.0000       0.013335         0.3629
  30   0.0000       0.046473         1.2646
  31   0.0000       0.054716         1.4889

MULLIKEN ATOMIC CHARGES
-----------------------
   0 N :   -0.594212
   1 C :   -0.155985
   2 C :   -0.423080
   3 N :   -0.030174
   4 H :    0.286182
   5 H :    0.286145
   6 H :    0.165900
   7 H :    0.164951
   8 H :    0.162608
   9 H :    0.162118
  10 O :   -0.333749
  11 C :    0.153979
  12 C :   -0.150222
  13 H :    0.141165
  14 H :    0.164374
Sum of atomic charges:    0.0000000

LOEWDIN ATOMIC CHARGES
----------------------
   0 N :   -0.532261
   1 C :   -0.235624
   2 C :   -0.222042
   3 N :   -0.122423
   4 H :    0.253008
   5 H :    0.252952
   6 H :    0.151452
   7 H :    0.151447
   8 H :    0.172796
   9 H :    0.172898
  10 O :   -0.493169
  11 C :    0.196395
  12 C :   -0.069279
  13 H :    0.162727
  14 H :    0.161124

  Mayer bond orders larger than 0.100000
B(  0-N ,  1-C ) :   1.0051 B(  0-N ,  4-H ) :   0.8797 B(  0-N ,  5-H ) :   0.8796
B(  1-C ,  2-C ) :   0.8620 B(  1-C ,  3-N ) :  -0.1001 B(  1-C ,  6-H ) :   0.9440
B(  1-C ,  7-H ) :   0.9434 B(  2-C ,  3-N ) :   1.0008 B(  2-C ,  8-H ) :   0.9351
B(  2-C ,  9-H ) :   0.9335 B(  3-N , 12-C ) :   1.9719 B( 10-O , 11-C ) :   1.9238
B( 11-C , 12-C ) :   0.9906 B( 11-C , 13-H ) :   0.9053 B( 12-C , 14-H ) :   0.9208

Dispersion correction           -0.026381826
FINAL SINGLE POINT ENERGY      -341.748927095452

DIPOLE MOMENT
-------------
                                X             Y             Z
Electronic contribution:      6.00257       1.04341      -0.58471
Nuclear contribution   :     -5.17291      -0.79201       0.63204
                        -----------------------------------------
Total Dipole Moment    :      0.82966       0.25140       0.04734
                        -----------------------------------------
Magnitude (a.u.)       :      0.86820
Magnitude (Debye)      :      2.20680

Rotational constants in cm-1:     0.204471     0.043308     0.036471
Rotational constants in MHz :  6129.890777  1298.329773  1093.382518

                             ****ORCA TERMINATED NORMALLY****
TOTAL RUN TIME: 0 days 0 hours 0 minutes 17 seconds 623 msec
