                         Program Version 4.2.1 -  RELEASE  -
|  1> ! SP B97-3c
|  2>
|  3> %base "example1"
|  4> %pal
|  5>    nprocs 1
|  6> end
|  7>
|  8> %scf
|  9>    MaxIter 2000
| 10> end
| 11>
| 12> * xyzfile 0 1 /home/atarzia/software/stk_optimizers/examples/orca_output_directory/orca_e1_dir/input_structure.xyz
| 13>
| 14>                          ****END OF INPUT****

CARTESIAN COORDINATES (ANGSTROEM)
---------------------------------
  N     -2.451684   -0.876389   -0.447788
  C     -1.707277    0.160334    0.216401
  C     -0.241550   -0.103512    0.083042
  N      0.580466    0.886129    0.719433
  H     -3.117529   -0.493827   -1.138419
  H     -1.850258   -1.562091   -0.952104
  H     -1.997699    0.108234    1.303445
  H     -2.009708    1.163636   -0.136712
  H     -0.022704   -0.236296   -0.998809
  H     -0.025835   -1.081859    0.560151
  O      2.201775   -0.910122   -0.765694
  C      2.700757    0.061737   -0.108268
  C      1.843052    0.967140    0.644702
  H      3.757862    0.152190   -0.154451
  H      2.340331    1.764695    1.175072

 Total Charge           Charge          ....    0
 Multiplicity           Mult            ....    1
 Number of Electrons    NEL             ....   54
 Basis Dimension        Dim             ....  162

ORBITAL ENERGIES
----------------

  NO   OCC          E(Eh)            E(eV)
   0   2.0000     -18.758719      -510.4507
   1   2.0000     -14.013991      -381.3401
   2   2.0000     -13.970957      -380.1691
   3   2.0000      -9.991685      -271.8876
   4   2.0000      -9.950558      -270.7684
   5   2.0000      -9.926688      -270.1189
   6   2.0000      -9.911045      -269.6933
   7   2.0000      -0.955121       -25.9902
   8   2.0000      -0.868290       -23.6274
   9   2.0000      -0.812249       -22.1024
  10   2.0000      -0.695992       -18.9389
  11   2.0000      -0.629263       -17.1231
  12   2.0000      -0.561963       -15.2918
  13   2.0000      -0.512994       -13.9593
  14   2.0000      -0.472932       -12.8691
  15   2.0000      -0.449380       -12.2283
  16   2.0000      -0.433946       -11.8083
  17   2.0000      -0.416268       -11.3272
  18   2.0000      -0.391532       -10.6541
  19   2.0000      -0.374233       -10.1834
  20   2.0000      -0.364483        -9.9181
  21   2.0000      -0.332015        -9.0346
  22   2.0000      -0.324649        -8.8342
  23   2.0000      -0.283388        -7.7114
  24   2.0000      -0.251519        -6.8442
  25   2.0000      -0.207900        -5.6573
  26   2.0000      -0.189845        -5.1659
  27   0.0000      -0.136214        -3.7066
  28   0.0000      -0.005160        -0.1404
  29   0.0000       0.020616         0.5610
  30   0.0000       0.045752         1.2450
  31   0.0000       0.054244         1.4761

MULLIKEN ATOMIC CHARGES
-----------------------
   0 N :   -0.673744
   1 C :   -0.090388
   2 C :   -0.476372
   3 N :   -0.007825
   4 H :    0.307420
   5 H :    0.304905
   6 H :    0.149204
   7 H :    0.151539
   8 H :    0.171970
   9 H :    0.199847
  10 O :   -0.342019
  11 C :    0.144669
  12 C :   -0.154973
  13 H :    0.158624
  14 H :    0.157143
Sum of atomic charges:    0.0000000

LOEWDIN ATOMIC CHARGES
----------------------
   0 N :   -0.552608
   1 C :   -0.223352
   2 C :   -0.211051
   3 N :   -0.106291
   4 H :    0.261506
   5 H :    0.259121
   6 H :    0.137443
   7 H :    0.141012
   8 H :    0.179129
   9 H :    0.183858
  10 O :   -0.521465
  11 C :    0.193974
  12 C :   -0.070209
  13 H :    0.171089
  14 H :    0.157843

  Mayer bond orders larger than 0.100000
B(  0-N ,  1-C ) :   0.9738 B(  0-N ,  4-H ) :   0.8691 B(  0-N ,  5-H ) :   0.8715
B(  1-C ,  2-C ) :   0.8767 B(  1-C ,  6-H ) :   0.9350 B(  1-C ,  7-H ) :   0.9699
B(  2-C ,  3-N ) :   1.0282 B(  2-C ,  8-H ) :   0.9195 B(  2-C ,  9-H ) :   0.9246
B(  3-N , 12-C ) :   1.9830 B( 10-O , 11-C ) :   1.8996 B( 11-C , 12-C ) :   1.0030
B( 11-C , 13-H ) :   0.9153 B( 12-C , 14-H ) :   0.9228

Dispersion correction           -0.026734839
FINAL SINGLE POINT ENERGY      -341.740755874799

DIPOLE MOMENT
-------------
                                X             Y             Z
Electronic contribution:      6.06287       0.60125       0.19958
Nuclear contribution   :     -5.52331      -0.06909      -0.42453
                        -----------------------------------------
Total Dipole Moment    :      0.53957       0.53216      -0.22495
                        -----------------------------------------
Magnitude (a.u.)       :      0.79052
Magnitude (Debye)      :      2.00935

Rotational constants in cm-1:     0.202405     0.046106     0.038233
Rotational constants in MHz :  6067.949585  1382.221194  1146.206282

                             ****ORCA TERMINATED NORMALLY****
TOTAL RUN TIME: 0 days 0 hours 0 minutes 18 seconds 851 msec
